# vtk DataFile Version 4.2
vtk output
ASCII
DATASET POLYDATA
POINTS 164 float
5.84482 4.02587 -14.6121 20.4569 4.02587 -14.6121 5.84482 4.02587 0 
20.4569 4.02587 0 5.84482 4.02587 14.6121 20.4569 4.02587 14.6121 
8.76723 -4.02587 0 23.3793 -4.02587 0 8.76723 -4.02587 -14.6121 
23.3793 -4.02587 -14.6121 8.76723 -4.02587 14.6121 23.3793 -4.02587 14.6121 
1.94827 -3.65874 -8.76723 16.5603 -3.65874 -8.76723 1.94827 -3.65874 5.84482 
16.5603 -3.65874 5.84482 12.6638 3.65874 8.76723 27.2758 3.65874 8.76723 
12.6638 3.65874 -5.84482 27.2758 3.65874 -5.84482 1.94827 -4.02587 -5.84482 
16.5603 -4.02587 -5.84482 1.94827 -4.02587 8.76723 16.5603 -4.02587 8.76723 
12.6638 4.02587 -8.76723 27.2758 4.02587 -8.76723 12.6638 4.02587 5.84482 
27.2758 4.02587 5.84482 2.92241 -1.4265 -10.2284 17.5345 -1.4265 -10.2284 
2.92241 -1.4265 4.38362 17.5345 -1.4265 4.38362 11.6896 1.4265 10.2284 
26.3017 1.4265 10.2284 11.6896 1.4265 -4.38362 26.3017 1.4265 -4.38362 
1.94827 -4.02587 5.84482 16.5603 -4.02587 5.84482 1.94827 -4.02587 -8.76723 
16.5603 -4.02587 -8.76723 12.6638 4.02587 -5.84482 27.2758 4.02587 -5.84482 
12.6638 4.02587 8.76723 27.2758 4.02587 8.76723 12.6638 2.97088 -10.2284 
27.2758 2.97088 -10.2284 12.6638 2.97088 4.38362 27.2758 2.97088 4.38362 
1.94827 -2.97088 -4.38362 16.5603 -2.97088 -4.38362 1.94827 -2.97088 10.2284 
16.5603 -2.97088 10.2284 9.74137 -2.02221 -2.92241 24.3534 -2.02221 -2.92241 
9.74137 -2.02221 11.6896 24.3534 -2.02221 11.6896 4.87069 2.02221 -11.6896 
19.4827 2.02221 -11.6896 4.87069 2.02221 2.92241 19.4827 2.02221 2.92241 
10.7155 -0.848986 -2.92241 25.3276 -0.848986 -2.92241 10.7155 -0.848986 11.6896 
25.3276 -0.848986 11.6896 3.89655 0.848986 -11.6896 18.5086 0.848986 -11.6896 
3.89655 0.848986 2.92241 18.5086 0.848986 2.92241 1.94827 -3.30794 -4.38362 
16.5603 -3.30794 -4.38362 12.6638 3.30794 -10.2284 27.2758 3.30794 -10.2284 
1.94827 -3.30794 10.2284 16.5603 -3.30794 10.2284 12.6638 3.30794 4.38362 
27.2758 3.30794 4.38362 10.7155 -1.13598 -2.92241 25.3276 -1.13598 -2.92241 
10.7155 -1.13598 11.6896 25.3276 -1.13598 11.6896 3.89655 1.13598 -11.6896 
18.5086 1.13598 -11.6896 3.89655 1.13598 2.92241 18.5086 1.13598 2.92241 
9.74137 -2.64541 2.92241 24.3534 -2.64541 2.92241 9.74137 -2.64541 -11.6896 
24.3534 -2.64541 -11.6896 4.87069 2.64541 11.6896 19.4827 2.64541 11.6896 
4.87069 2.64541 -2.92241 19.4827 2.64541 -2.92241 9.74137 -3.30794 2.92241 
24.3534 -3.30794 2.92241 9.74137 -3.30794 -11.6896 24.3534 -3.30794 -11.6896 
4.87069 3.30794 11.6896 19.4827 3.30794 11.6896 4.87069 3.30794 -2.92241 
19.4827 3.30794 -2.92241 1.94827 -2.64541 -10.2284 16.5603 -2.64541 -10.2284 
12.6638 2.64541 -4.38362 27.2758 2.64541 -4.38362 1.94827 -2.64541 4.38362 
16.5603 -2.64541 4.38362 12.6638 2.64541 10.2284 27.2758 2.64541 10.2284 
3.89655 0 -11.6896 18.5086 0 -11.6896 10.7155 0 -2.92241 
25.3276 0 -2.92241 3.89655 0 2.92241 18.5086 0 2.92241 
10.7155 0 11.6896 25.3276 0 11.6896 5.84482 2.97088 1.46121 
20.4569 2.97088 1.46121 5.84482 2.97088 -13.1509 20.4569 2.97088 -13.1509 
8.76723 -2.97088 13.1509 23.3793 -2.97088 13.1509 8.76723 -2.97088 -1.46121 
23.3793 -2.97088 -1.46121 3.89655 0.281868 -4.38362 18.5086 0.281868 -4.38362 
3.89655 0.281868 10.2284 18.5086 0.281868 10.2284 10.7155 -0.281868 -10.2284 
25.3276 -0.281868 -10.2284 10.7155 -0.281868 4.38362 25.3276 -0.281868 4.38362 
10.7155 -0.848986 2.92241 25.3276 -0.848986 2.92241 10.7155 -0.848986 -11.6896 
25.3276 -0.848986 -11.6896 3.89655 0.848986 -2.92241 18.5086 0.848986 -2.92241 
3.89655 0.848986 11.6896 18.5086 0.848986 11.6896 3.89655 -0.281868 -4.38362 
18.5086 -0.281868 -4.38362 3.89655 -0.281868 10.2284 18.5086 -0.281868 10.2284 
10.7155 0.281868 -10.2284 25.3276 0.281868 -10.2284 10.7155 0.281868 4.38362 
25.3276 0.281868 4.38362 0 4.41249 -7.30603 0 4.41249 7.30603 
29.2241 -4.41249 -7.30603 29.2241 -4.41249 7.30603 9.74137 14.6121 -10.2284 
24.3534 14.6121 -10.2284 11.6896 -14.6121 -11.6896 26.3017 -14.6121 -11.6896 
2.92241 14.6121 -2.92241 26.3017 -14.6121 2.92241 2.92241 14.6121 11.6896 
0 -14.6121 -14.6121 29.2241 14.6121 14.6121 0 -14.6121 -13.1509 
29.2241 14.6121 13.1509 29.2241 0 14.6121 
LINES 163 489
2 159 161 
2 8 94 
2 9 95 
2 0 118 
2 1 119 
2 161 162 
2 118 140 
2 119 141 
2 154 155 
2 155 156 
2 94 134 
2 95 135 
2 86 94 
2 87 95 
2 134 144 
2 135 145 
2 108 118 
2 109 119 
2 64 80 
2 65 81 
2 80 108 
2 81 109 
2 56 80 
2 57 81 
2 100 108 
2 101 109 
2 28 100 
2 29 101 
2 128 134 
2 129 135 
2 144 146 
2 145 147 
2 44 70 
2 45 71 
2 70 102 
2 71 103 
2 152 154 
2 153 154 
2 38 68 
2 39 69 
2 12 38 
2 13 39 
2 24 40 
2 25 41 
2 150 155 
2 148 156 
2 20 38 
2 21 39 
2 18 40 
2 19 41 
2 40 70 
2 41 71 
2 68 100 
2 69 101 
2 48 68 
2 49 69 
2 140 142 
2 141 143 
2 124 136 
2 125 137 
2 34 102 
2 35 103 
2 102 110 
2 103 111 
2 52 76 
2 53 77 
2 76 110 
2 77 111 
2 60 76 
2 61 77 
2 110 122 
2 111 123 
2 136 140 
2 137 141 
2 90 98 
2 91 99 
2 98 116 
2 99 117 
2 156 157 
2 122 132 
2 123 133 
2 6 92 
2 7 93 
2 2 98 
2 3 99 
2 116 136 
2 117 137 
2 157 158 
2 92 122 
2 93 123 
2 84 92 
2 85 93 
2 132 144 
2 133 145 
2 112 116 
2 113 117 
2 66 82 
2 67 83 
2 82 112 
2 83 113 
2 58 82 
2 59 83 
2 104 112 
2 105 113 
2 30 104 
2 31 105 
2 130 132 
2 131 133 
2 146 152 
2 147 153 
2 46 74 
2 47 75 
2 74 106 
2 75 107 
2 36 72 
2 37 73 
2 14 36 
2 15 37 
2 26 42 
2 27 43 
2 151 157 
2 149 158 
2 22 36 
2 23 37 
2 16 42 
2 17 43 
2 42 74 
2 43 75 
2 72 104 
2 73 105 
2 50 72 
2 51 73 
2 142 152 
2 143 153 
2 126 138 
2 127 139 
2 32 106 
2 33 107 
2 106 114 
2 107 115 
2 54 78 
2 55 79 
2 78 114 
2 79 115 
2 62 78 
2 63 79 
2 114 120 
2 115 121 
2 138 142 
2 139 143 
2 88 96 
2 89 97 
2 96 138 
2 97 139 
2 158 161 
2 120 146 
2 121 147 
2 162 163 
2 10 120 
2 11 121 
2 4 96 
2 5 97 
2 160 162 

POINT_DATA 164
FIELD FieldData 2
scalars 1 164 float
15.9906 15.9906 15.9906 15.9906 15.9906 15.9906 15.9906 15.9906 15.9906 
15.9906 15.9906 15.9906 16.0812 16.0812 16.0812 16.0812 16.0812 16.0812 
16.0812 16.0812 16.0968 16.0968 16.0968 16.0968 16.0968 16.0968 16.0968 
16.0968 16.1722 16.1722 16.1722 16.1722 16.1722 16.1722 16.1722 16.1722 
16.1864 16.1864 16.1864 16.1864 16.1864 16.1864 16.1864 16.1864 16.2121 
16.2121 16.2121 16.2121 16.2121 16.2121 16.2121 16.2121 16.2175 16.2175 
16.2175 16.2175 16.2175 16.2175 16.2175 16.2175 16.2556 16.2556 16.2556 
16.2556 16.2556 16.2556 16.2556 16.2556 16.2773 16.2773 16.2773 16.2773 
16.2773 16.2773 16.2773 16.2773 16.2882 16.2882 16.2882 16.2882 16.2882 
16.2882 16.2883 16.2883 16.3008 16.3008 16.3008 16.3008 16.3008 16.3008 
16.3008 16.3008 16.4072 16.4072 16.4072 16.4072 16.4072 16.4072 16.4072 
16.4072 16.444 16.444 16.444 16.444 16.444 16.444 16.444 16.444 
16.4661 16.4661 16.4661 16.4661 16.4661 16.4661 16.4661 16.4661 16.4729 
16.4729 16.4729 16.4729 16.4729 16.4729 16.4729 16.4729 16.7958 16.7958 
16.7958 16.7958 16.7958 16.7958 16.7958 16.7958 16.834 16.834 16.834 
16.834 16.834 16.834 16.834 16.834 16.8556 16.8556 16.8556 16.8556 
16.8556 16.8556 16.8556 16.8556 17.505 17.505 17.505 17.505 17.8768 
17.8768 17.8768 17.8768 17.8768 17.8768 17.8768 17.8776 17.8776 17.8776 
17.8776 18.3995 
type|reg-min-max-sad 1 164 float
1 1 1 1 1 1 1 1 1 
1 1 1 1 1 1 1 1 1 
1 1 1 1 1 1 1 1 1 
1 1 1 1 1 1 1 1 1 
4 4 4 4 4 4 4 4 1 
1 1 1 1 1 1 1 1 1 
1 1 1 1 1 1 1 1 1 
1 1 1 1 1 4 4 4 4 
4 4 4 4 4 4 4 4 4 
4 4 4 1 1 1 1 1 1 
1 1 4 4 4 4 4 4 4 
4 4 4 4 4 4 4 4 4 
4 4 4 4 4 4 4 4 4 
4 4 4 4 4 4 4 1 1 
1 1 1 1 1 1 4 4 4 
4 4 4 4 4 4 4 4 4 
4 4 4 4 1 1 1 1 4 
4 4 4 4 4 4 1 1 4 
4 2 
